# LAMMPS data file written by Ovito 3.14.1

2304 atoms
2 atom types

0.0 40.044 xlo xhi
0.0 39.798 ylo yhi
0.0 26.766 zlo zhi

Atom Type Labels

1 O
2 Si

Masses

1 15.9994  # O
2 28.0855  # Si

Atoms  # full

1 1 2 0.0 8.45689236 1.1242935 8.88657966
2 1 2 0.0 1.55410764 18.7747065 2.19507966
3 1 2 0.0 18.46789236 8.8252065 11.18792034
4 1 2 0.0 11.56510764 11.0737935 4.49642034
5 1 2 0.0 11.56510764 18.7747065 4.49642034
6 1 2 0.0 18.46789236 1.1242935 11.18792034
7 1 2 0.0 1.55410764 11.0737935 2.19507966
8 1 2 0.0 8.45689236 8.8252065 8.88657966
9 1 2 0.0 6.14995752 0.55160028 10.8495981
10 1 2 0.0 3.86104248 19.34739972 4.1580981
11 1 2 0.0 16.16095752 9.39789972 9.2249019
12 1 2 0.0 13.87204248 10.50110028 2.5334019
13 1 2 0.0 13.87204248 19.34739972 2.5334019
14 1 2 0.0 16.16095752 0.55160028 9.2249019
15 1 2 0.0 3.86104248 10.50110028 4.1580981
16 1 2 0.0 6.14995752 9.39789972 10.8495981
17 1 2 0.0 5.58834042 1.21921173 0.4175496
18 1 2 0.0 4.42265958 18.67978827 7.1090496
19 1 2 0.0 15.59934042 8.73028827 6.2739504
20 1 2 0.0 14.43365958 11.16871173 12.9654504
21 1 2 0.0 14.43365958 18.67978827 12.9654504
22 1 2 0.0 15.59934042 1.21921173 6.2739504
23 1 2 0.0 4.42265958 11.16871173 7.1090496
24 1 2 0.0 5.58834042 8.73028827 0.4175496
25 1 2 0.0 2.4456873 1.25323902 0.3573261
26 1 2 0.0 7.5653127 18.64576098 7.0488261
27 1 2 0.0 12.4566873 8.69626098 6.3341739
28 1 2 0.0 17.5763127 11.20273902 13.0256739
29 1 2 0.0 17.5763127 18.64576098 13.0256739
30 1 2 0.0 12.4566873 1.25323902 6.3341739
31 1 2 0.0 7.5653127 11.20273902 7.0488261
32 1 2 0.0 2.4456873 8.69626098 0.3573261
33 1 2 0.0 1.42716816 0.54165078 10.90031967
34 1 2 0.0 8.58383184 19.35734922 4.20881967
35 1 2 0.0 11.43816816 9.40784922 9.17418033
36 1 2 0.0 18.59483184 10.49115078 2.48268033
37 1 2 0.0 18.59483184 19.35734922 2.48268033
38 1 2 0.0 11.43816816 0.54165078 9.17418033
39 1 2 0.0 8.58383184 10.49115078 4.20881967
40 1 2 0.0 1.42716816 9.40784922 10.90031967
41 1 2 0.0 3.73230102 1.17324504 8.99096706
42 1 2 0.0 6.27869898 18.72575496 2.29946706
43 1 2 0.0 13.74330102 8.77625496 11.08353294
44 1 2 0.0 16.28969898 11.12274504 4.39203294
45 1 2 0.0 16.28969898 18.72575496 4.39203294
46 1 2 0.0 13.74330102 1.17324504 11.08353294
47 1 2 0.0 6.27869898 11.12274504 2.29946706
48 1 2 0.0 3.73230102 8.77625496 8.99096706
49 1 2 0.0 8.4622983 16.4664225 9.00435006
50 1 2 0.0 1.5487017 3.4325775 2.31285006
51 1 2 0.0 18.4732983 13.3820775 11.07014994
52 1 2 0.0 11.5597017 6.5169225 4.37864994
53 1 2 0.0 11.5597017 3.4325775 4.37864994
54 1 2 0.0 18.4732983 16.4664225 11.07014994
55 1 2 0.0 1.5487017 6.5169225 2.31285006
56 1 2 0.0 8.4622983 13.3820775 9.00435006
57 1 2 0.0 6.16237116 17.30894616 10.90072116
58 1 2 0.0 3.84862884 2.59005384 4.20922116
59 1 2 0.0 16.17337116 12.53955384 9.17377884
60 1 2 0.0 13.85962884 7.35944616 2.48227884
61 1 2 0.0 13.85962884 2.59005384 2.48227884
62 1 2 0.0 16.17337116 17.30894616 9.17377884
63 1 2 0.0 3.84862884 7.35944616 4.20922116
64 1 2 0.0 6.16237116 12.53955384 10.90072116
65 1 2 0.0 5.51686188 16.46065179 0.41607747
66 1 2 0.0 4.49413812 3.43834821 7.10757747
67 1 2 0.0 15.52786188 13.38784821 6.27542253
68 1 2 0.0 14.50513812 6.51115179 12.96692253
69 1 2 0.0 14.50513812 3.43834821 12.96692253
70 1 2 0.0 15.52786188 16.46065179 6.27542253
71 1 2 0.0 4.49413812 6.51115179 7.10757747
72 1 2 0.0 5.51686188 13.38784821 0.41607747
73 1 2 0.0 2.41425276 16.4544831 0.39867957
74 1 2 0.0 7.59674724 3.4445169 7.09017957
75 1 2 0.0 12.42525276 13.3940169 6.29282043
76 1 2 0.0 17.60774724 6.5049831 12.98432043
77 1 2 0.0 17.60774724 3.4445169 12.98432043
78 1 2 0.0 12.42525276 16.4544831 6.29282043
79 1 2 0.0 7.59674724 6.5049831 7.09017957
80 1 2 0.0 2.41425276 13.3940169 0.39867957
81 1 2 0.0 1.41034968 17.30476737 10.947294
82 1 2 0.0 8.60065032 2.59423263 4.255794
83 1 2 0.0 11.42134968 12.54373263 9.127206
84 1 2 0.0 18.61165032 7.35526737 2.435706
85 1 2 0.0 18.61165032 2.59423263 2.435706
86 1 2 0.0 11.42134968 17.30476737 9.127206
87 1 2 0.0 8.60065032 7.35526737 4.255794
88 1 2 0.0 1.41034968 12.54373263 10.947294
89 1 2 0.0 3.74531532 16.45110027 9.10940661
90 1 2 0.0 6.26568468 3.44789973 2.41790661
91 1 2 0.0 13.75631532 13.39739973 10.96509339
92 1 2 0.0 16.27668468 6.50160027 4.27359339
93 1 2 0.0 16.27668468 3.44789973 4.27359339
94 1 2 0.0 13.75631532 16.45110027 10.96509339
95 1 2 0.0 6.26568468 6.50160027 2.41790661
96 1 2 0.0 3.74531532 13.39739973 9.10940661
97 1 1 0.0 7.4601972 1.0626066 10.1148714
98 1 1 0.0 2.5508028 18.8363934 3.4233714
99 1 1 0.0 17.4711972 8.8868934 9.9596286
100 1 1 0.0 12.5618028 11.0121066 3.2681286
101 1 1 0.0 12.5618028 18.8363934 3.2681286
102 1 1 0.0 17.4711972 1.0626066 9.9596286
103 1 1 0.0 2.5508028 11.0121066 3.4233714
104 1 1 0.0 7.4601972 8.8868934 10.1148714
105 1 1 0.0 6.1747848 1.1680713 12.3270813
106 1 1 0.0 3.8362152 18.7309287 5.6355813
107 1 1 0.0 16.1857848 8.7814287 7.7474187
108 1 1 0.0 13.8472152 11.1175713 1.0559187
109 1 1 0.0 13.8472152 18.7309287 1.0559187
110 1 1 0.0 16.1857848 1.1680713 7.7474187
111 1 1 0.0 3.8362152 11.1175713 5.6355813
112 1 1 0.0 6.1747848 8.7814287 12.3270813
113 1 1 0.0 4.0184154 1.1780208 0.3867687
114 1 1 0.0 5.9925846 18.7209792 7.0782687
115 1 1 0.0 14.0294154 8.7714792 6.3047313
116 1 1 0.0 16.0035846 11.1275208 12.9962313
117 1 1 0.0 16.0035846 18.7209792 12.9962313
118 1 1 0.0 14.0294154 1.1780208 6.3047313
119 1 1 0.0 5.9925846 11.1275208 7.0782687
120 1 1 0.0 4.0184154 8.7714792 0.3867687
121 1 1 0.0 1.9401318 1.2158289 12.2374152
122 1 1 0.0 8.0708682 18.6831711 5.5459152
123 1 1 0.0 11.9511318 8.7336711 7.8370848
124 1 1 0.0 18.0818682 11.1653289 1.1455848
125 1 1 0.0 18.0818682 18.6831711 1.1455848
126 1 1 0.0 11.9511318 1.2158289 7.8370848
127 1 1 0.0 8.0708682 11.1653289 5.5459152
128 1 1 0.0 1.9401318 8.7336711 12.2374152
129 1 1 0.0 2.3005278 1.0765359 9.6852771
130 1 1 0.0 7.7104722 18.8224641 2.9937771
131 1 1 0.0 12.3115278 8.8729641 10.3892229
132 1 1 0.0 17.7214722 11.0260359 3.6977229
133 1 1 0.0 17.7214722 18.8224641 3.6977229
134 1 1 0.0 12.3115278 1.0765359 10.3892229
135 1 1 0.0 7.7104722 11.0260359 2.9937771
136 1 1 0.0 2.3005278 8.8729641 9.6852771
137 1 1 0.0 4.875357 1.1004147 10.090782
138 1 1 0.0 5.135643 18.7985853 3.399282
139 1 1 0.0 14.886357 8.8490853 9.983718
140 1 1 0.0 15.146643 11.0499147 3.292218
141 1 1 0.0 15.146643 18.7985853 3.292218
142 1 1 0.0 14.886357 1.1004147 9.983718
143 1 1 0.0 5.135643 11.0499147 3.399282
144 1 1 0.0 4.875357 8.8490853 10.090782
145 1 1 0.0 7.4922324 16.7927661 10.2085524
146 1 1 0.0 2.5187676 3.1062339 3.5170524
147 1 1 0.0 17.5032324 13.0557339 9.8659476
148 1 1 0.0 12.5297676 6.8432661 3.1744476
149 1 1 0.0 12.5297676 3.1062339 3.1744476
150 1 1 0.0 17.5032324 16.7927661 9.8659476
151 1 1 0.0 2.5187676 6.8432661 3.5170524
152 1 1 0.0 7.4922324 13.0557339 10.2085524
153 1 1 0.0 6.176787 16.8106752 12.4087176
154 1 1 0.0 3.834213 3.0883248 5.7172176
155 1 1 0.0 16.187787 13.0378248 7.6657824
156 1 1 0.0 13.845213 6.8611752 0.9742824
157 1 1 0.0 13.845213 3.0883248 0.9742824
158 1 1 0.0 16.187787 16.8106752 7.6657824
159 1 1 0.0 3.834213 6.8611752 5.7172176
160 1 1 0.0 6.176787 13.0378248 12.4087176
161 1 1 0.0 3.964356 16.8066954 0.3854304
162 1 1 0.0 6.046644 3.0923046 7.0769304
163 1 1 0.0 13.975356 13.0418046 6.3060696
164 1 1 0.0 16.057644 6.8571954 12.9975696
165 1 1 0.0 16.057644 3.0923046 12.9975696
166 1 1 0.0 13.975356 16.8066954 6.3060696
167 1 1 0.0 6.046644 6.8571954 7.0769304
168 1 1 0.0 3.964356 13.0418046 0.3854304
169 1 1 0.0 1.822002 16.6873014 12.3431409
170 1 1 0.0 8.188998 3.2116986 5.6516409
171 1 1 0.0 11.833002 13.1611986 7.7313591
172 1 1 0.0 18.199998 6.7378014 1.0398591
173 1 1 0.0 18.199998 3.2116986 1.0398591
174 1 1 0.0 11.833002 16.6873014 7.7313591
175 1 1 0.0 8.188998 6.7378014 5.6516409
176 1 1 0.0 1.822002 13.1611986 12.3431409
177 1 1 0.0 2.3405718 16.7589378 9.7776198
178 1 1 0.0 7.6704282 3.1400622 3.0861198
179 1 1 0.0 12.3515718 13.0895622 10.2968802
180 1 1 0.0 17.6814282 6.8094378 3.6053802
181 1 1 0.0 17.6814282 3.1400622 3.6053802
182 1 1 0.0 12.3515718 16.7589378 10.2968802
183 1 1 0.0 7.6704282 6.8094378 3.0861198
184 1 1 0.0 2.3405718 13.0895622 9.7776198
185 1 1 0.0 4.9013856 16.7270994 10.1416374
186 1 1 0.0 5.1096144 3.1719006 3.4501374
187 1 1 0.0 14.9123856 13.1214006 9.9328626
188 1 1 0.0 15.1206144 6.7775994 3.2413626
189 1 1 0.0 15.1206144 3.1719006 3.2413626
190 1 1 0.0 14.9123856 16.7270994 9.9328626
191 1 1 0.0 5.1096144 6.7775994 3.4501374
192 1 1 0.0 4.9013856 13.1214006 10.1416374
193 1 1 0.0 6.1007034 18.884151 10.8857322
194 1 1 0.0 3.9102966 1.014849 4.1942322
195 1 1 0.0 16.1117034 10.964349 9.1887678
196 1 1 0.0 13.9212966 8.934651 2.4972678
197 1 1 0.0 13.9212966 1.014849 2.4972678
198 1 1 0.0 16.1117034 18.884151 9.1887678
199 1 1 0.0 3.9102966 8.934651 4.1942322
200 1 1 0.0 6.1007034 10.964349 10.8857322
201 1 1 0.0 1.5376896 18.8662419 11.0155473
202 1 1 0.0 8.4733104 1.0327581 4.3240473
203 1 1 0.0 11.5486896 10.9822581 9.0589527
204 1 1 0.0 18.4843104 8.9167419 2.3674527
205 1 1 0.0 18.4843104 1.0327581 2.3674527
206 1 1 0.0 11.5486896 18.8662419 9.0589527
207 1 1 0.0 8.4733104 8.9167419 4.3240473
208 1 1 0.0 1.5376896 10.9822581 11.0155473
209 1 1 0.0 8.3311542 2.5391124 8.1689832
210 1 1 0.0 1.6798458 17.3598876 1.4774832
211 1 1 0.0 18.3421542 7.4103876 11.9055168
212 1 1 0.0 11.6908458 12.4886124 5.2140168
213 1 1 0.0 11.6908458 17.3598876 5.2140168
214 1 1 0.0 18.3421542 2.5391124 11.9055168
215 1 1 0.0 1.6798458 12.4886124 1.4774832
216 1 1 0.0 8.3311542 7.4103876 8.1689832
217 1 1 0.0 8.1809892 19.8651717 7.8477912
218 1 1 0.0 1.8300108 0.0338283 1.1562912
219 1 1 0.0 18.1919892 9.9833283 12.2267088
220 1 1 0.0 11.8410108 9.9156717 5.5352088
221 1 1 0.0 11.8410108 0.0338283 5.5352088
222 1 1 0.0 18.1919892 19.8651717 12.2267088
223 1 1 0.0 1.8300108 9.9156717 1.1562912
224 1 1 0.0 8.1809892 9.9833283 7.8477912
225 1 1 0.0 8.048844 17.2842714 7.7099463
226 1 1 0.0 1.962156 2.6147286 1.0184463
227 1 1 0.0 18.059844 12.5642286 12.3645537
228 1 1 0.0 11.973156 7.3347714 5.6730537
229 1 1 0.0 11.973156 2.6147286 5.6730537
230 1 1 0.0 18.059844 17.2842714 12.3645537
231 1 1 0.0 1.962156 7.3347714 1.0184463
232 1 1 0.0 8.048844 12.5642286 7.7099463
233 1 1 0.0 3.7761492 2.5828902 8.2492812
234 1 1 0.0 6.2348508 17.3161098 1.5577812
235 1 1 0.0 13.7871492 7.3666098 11.8252188
236 1 1 0.0 16.2458508 12.5323902 5.1337188
237 1 1 0.0 16.2458508 17.3161098 5.1337188
238 1 1 0.0 13.7871492 2.5828902 11.8252188
239 1 1 0.0 6.2348508 12.5323902 1.5577812
240 1 1 0.0 3.7761492 7.3666098 8.2492812
241 1 1 0.0 3.884268 0.0139293 7.9200594
242 1 1 0.0 6.126732 19.8850707 1.2285594
243 1 1 0.0 13.895268 9.9355707 12.1544406
244 1 1 0.0 16.137732 9.9634293 5.4629406
245 1 1 0.0 16.137732 19.8850707 5.4629406
246 1 1 0.0 13.895268 0.0139293 12.1544406
247 1 1 0.0 6.126732 9.9634293 1.2285594
248 1 1 0.0 3.884268 9.9355707 7.9200594
249 1 1 0.0 3.9062922 17.3300391 7.775523
250 1 1 0.0 6.1047078 2.5689609 1.084023
251 1 1 0.0 13.9172922 12.5184609 12.298977
252 1 1 0.0 16.1157078 7.3805391 5.607477
253 1 1 0.0 16.1157078 2.5689609 5.607477
254 1 1 0.0 13.9172922 17.3300391 12.298977
255 1 1 0.0 6.1047078 7.3805391 1.084023
256 1 1 0.0 3.9062922 12.5184609 7.775523
257 1 1 0.0 19.9479186 0.9989298 10.599336
258 1 1 0.0 10.0850814 18.9000702 3.907836
259 1 1 0.0 9.9369186 8.9505702 9.475164
260 1 1 0.0 0.0740814 10.9484298 2.783664
261 1 1 0.0 0.0740814 18.9000702 2.783664
262 1 1 0.0 9.9369186 0.9989298 9.475164
263 1 1 0.0 10.0850814 10.9484298 3.907836
264 1 1 0.0 19.9479186 8.9505702 10.599336
265 1 1 0.0 19.941912 16.8584328 10.6020126
266 1 1 0.0 10.091088 3.0405672 3.9105126
267 1 1 0.0 9.930912 12.9900672 9.4724874
268 1 1 0.0 0.080088 6.9089328 2.7809874
269 1 1 0.0 0.080088 3.0405672 2.7809874
270 1 1 0.0 9.930912 16.8584328 9.4724874
271 1 1 0.0 10.091088 6.9089328 3.9105126
272 1 1 0.0 19.941912 12.9900672 10.6020126
273 1 1 0.0 8.3932224 14.92425 8.645418
274 1 1 0.0 1.6177776 4.97475 1.953918
275 1 1 0.0 18.4042224 14.92425 11.429082
276 1 1 0.0 11.6287776 4.97475 4.737582
277 1 1 0.0 3.7721448 14.92425 8.6480946
278 1 1 0.0 6.2388552 4.97475 1.9565946
279 1 1 0.0 13.7831448 14.92425 11.4264054
280 1 1 0.0 16.2498552 4.97475 4.7349054
281 1 1 0.0 5.7723426 14.92425 0.7748757
282 1 1 0.0 4.2386574 4.97475 7.4663757
283 1 1 0.0 15.7833426 14.92425 5.9166243
284 1 1 0.0 14.2496574 4.97475 12.6081243
285 1 1 0.0 2.172387 14.92425 0.8177013
286 1 1 0.0 7.838613 4.97475 7.5092013
287 1 1 0.0 12.183387 14.92425 5.8737987
288 1 1 0.0 17.849613 4.97475 12.5652987
289 1 2 0.0 8.45689236 1.1242935 22.26957966
290 1 2 0.0 1.55410764 18.7747065 15.57807966
291 1 2 0.0 18.46789236 8.8252065 24.57092034
292 1 2 0.0 11.56510764 11.0737935 17.87942034
293 1 2 0.0 11.56510764 18.7747065 17.87942034
294 1 2 0.0 18.46789236 1.1242935 24.57092034
295 1 2 0.0 1.55410764 11.0737935 15.57807966
296 1 2 0.0 8.45689236 8.8252065 22.26957966
297 1 2 0.0 6.14995752 0.55160028 24.2325981
298 1 2 0.0 3.86104248 19.34739972 17.5410981
299 1 2 0.0 16.16095752 9.39789972 22.6079019
300 1 2 0.0 13.87204248 10.50110028 15.9164019
301 1 2 0.0 13.87204248 19.34739972 15.9164019
302 1 2 0.0 16.16095752 0.55160028 22.6079019
303 1 2 0.0 3.86104248 10.50110028 17.5410981
304 1 2 0.0 6.14995752 9.39789972 24.2325981
305 1 2 0.0 5.58834042 1.21921173 13.8005496
306 1 2 0.0 4.42265958 18.67978827 20.4920496
307 1 2 0.0 15.59934042 8.73028827 19.6569504
308 1 2 0.0 14.43365958 11.16871173 26.3484504
309 1 2 0.0 14.43365958 18.67978827 26.3484504
310 1 2 0.0 15.59934042 1.21921173 19.6569504
311 1 2 0.0 4.42265958 11.16871173 20.4920496
312 1 2 0.0 5.58834042 8.73028827 13.8005496
313 1 2 0.0 2.4456873 1.25323902 13.7403261
314 1 2 0.0 7.5653127 18.64576098 20.4318261
315 1 2 0.0 12.4566873 8.69626098 19.7171739
316 1 2 0.0 17.5763127 11.20273902 26.4086739
317 1 2 0.0 17.5763127 18.64576098 26.4086739
318 1 2 0.0 12.4566873 1.25323902 19.7171739
319 1 2 0.0 7.5653127 11.20273902 20.4318261
320 1 2 0.0 2.4456873 8.69626098 13.7403261
321 1 2 0.0 1.42716816 0.54165078 24.28331967
322 1 2 0.0 8.58383184 19.35734922 17.59181967
323 1 2 0.0 11.43816816 9.40784922 22.55718033
324 1 2 0.0 18.59483184 10.49115078 15.86568033
325 1 2 0.0 18.59483184 19.35734922 15.86568033
326 1 2 0.0 11.43816816 0.54165078 22.55718033
327 1 2 0.0 8.58383184 10.49115078 17.59181967
328 1 2 0.0 1.42716816 9.40784922 24.28331967
329 1 2 0.0 3.73230102 1.17324504 22.37396706
330 1 2 0.0 6.27869898 18.72575496 15.68246706
331 1 2 0.0 13.74330102 8.77625496 24.46653294
332 1 2 0.0 16.28969898 11.12274504 17.77503294
333 1 2 0.0 16.28969898 18.72575496 17.77503294
334 1 2 0.0 13.74330102 1.17324504 24.46653294
335 1 2 0.0 6.27869898 11.12274504 15.68246706
336 1 2 0.0 3.73230102 8.77625496 22.37396706
337 1 2 0.0 8.4622983 16.4664225 22.38735006
338 1 2 0.0 1.5487017 3.4325775 15.69585006
339 1 2 0.0 18.4732983 13.3820775 24.45314994
340 1 2 0.0 11.5597017 6.5169225 17.76164994
341 1 2 0.0 11.5597017 3.4325775 17.76164994
342 1 2 0.0 18.4732983 16.4664225 24.45314994
343 1 2 0.0 1.5487017 6.5169225 15.69585006
344 1 2 0.0 8.4622983 13.3820775 22.38735006
345 1 2 0.0 6.16237116 17.30894616 24.28372116
346 1 2 0.0 3.84862884 2.59005384 17.59222116
347 1 2 0.0 16.17337116 12.53955384 22.55677884
348 1 2 0.0 13.85962884 7.35944616 15.86527884
349 1 2 0.0 13.85962884 2.59005384 15.86527884
350 1 2 0.0 16.17337116 17.30894616 22.55677884
351 1 2 0.0 3.84862884 7.35944616 17.59222116
352 1 2 0.0 6.16237116 12.53955384 24.28372116
353 1 2 0.0 5.51686188 16.46065179 13.79907747
354 1 2 0.0 4.49413812 3.43834821 20.49057747
355 1 2 0.0 15.52786188 13.38784821 19.65842253
356 1 2 0.0 14.50513812 6.51115179 26.34992253
357 1 2 0.0 14.50513812 3.43834821 26.34992253
358 1 2 0.0 15.52786188 16.46065179 19.65842253
359 1 2 0.0 4.49413812 6.51115179 20.49057747
360 1 2 0.0 5.51686188 13.38784821 13.79907747
361 1 2 0.0 2.41425276 16.4544831 13.78167957
362 1 2 0.0 7.59674724 3.4445169 20.47317957
363 1 2 0.0 12.42525276 13.3940169 19.67582043
364 1 2 0.0 17.60774724 6.5049831 26.36732043
365 1 2 0.0 17.60774724 3.4445169 26.36732043
366 1 2 0.0 12.42525276 16.4544831 19.67582043
367 1 2 0.0 7.59674724 6.5049831 20.47317957
368 1 2 0.0 2.41425276 13.3940169 13.78167957
369 1 2 0.0 1.41034968 17.30476737 24.330294
370 1 2 0.0 8.60065032 2.59423263 17.638794
371 1 2 0.0 11.42134968 12.54373263 22.510206
372 1 2 0.0 18.61165032 7.35526737 15.818706
373 1 2 0.0 18.61165032 2.59423263 15.818706
374 1 2 0.0 11.42134968 17.30476737 22.510206
375 1 2 0.0 8.60065032 7.35526737 17.638794
376 1 2 0.0 1.41034968 12.54373263 24.330294
377 1 2 0.0 3.74531532 16.45110027 22.49240661
378 1 2 0.0 6.26568468 3.44789973 15.80090661
379 1 2 0.0 13.75631532 13.39739973 24.34809339
380 1 2 0.0 16.27668468 6.50160027 17.65659339
381 1 2 0.0 16.27668468 3.44789973 17.65659339
382 1 2 0.0 13.75631532 16.45110027 24.34809339
383 1 2 0.0 6.26568468 6.50160027 15.80090661
384 1 2 0.0 3.74531532 13.39739973 22.49240661
385 1 1 0.0 7.4601972 1.0626066 23.4978714
386 1 1 0.0 2.5508028 18.8363934 16.8063714
387 1 1 0.0 17.4711972 8.8868934 23.3426286
388 1 1 0.0 12.5618028 11.0121066 16.6511286
389 1 1 0.0 12.5618028 18.8363934 16.6511286
390 1 1 0.0 17.4711972 1.0626066 23.3426286
391 1 1 0.0 2.5508028 11.0121066 16.8063714
392 1 1 0.0 7.4601972 8.8868934 23.4978714
393 1 1 0.0 6.1747848 1.1680713 25.7100813
394 1 1 0.0 3.8362152 18.7309287 19.0185813
395 1 1 0.0 16.1857848 8.7814287 21.1304187
396 1 1 0.0 13.8472152 11.1175713 14.4389187
397 1 1 0.0 13.8472152 18.7309287 14.4389187
398 1 1 0.0 16.1857848 1.1680713 21.1304187
399 1 1 0.0 3.8362152 11.1175713 19.0185813
400 1 1 0.0 6.1747848 8.7814287 25.7100813
401 1 1 0.0 4.0184154 1.1780208 13.7697687
402 1 1 0.0 5.9925846 18.7209792 20.4612687
403 1 1 0.0 14.0294154 8.7714792 19.6877313
404 1 1 0.0 16.0035846 11.1275208 26.3792313
405 1 1 0.0 16.0035846 18.7209792 26.3792313
406 1 1 0.0 14.0294154 1.1780208 19.6877313
407 1 1 0.0 5.9925846 11.1275208 20.4612687
408 1 1 0.0 4.0184154 8.7714792 13.7697687
409 1 1 0.0 1.9401318 1.2158289 25.6204152
410 1 1 0.0 8.0708682 18.6831711 18.9289152
411 1 1 0.0 11.9511318 8.7336711 21.2200848
412 1 1 0.0 18.0818682 11.1653289 14.5285848
413 1 1 0.0 18.0818682 18.6831711 14.5285848
414 1 1 0.0 11.9511318 1.2158289 21.2200848
415 1 1 0.0 8.0708682 11.1653289 18.9289152
416 1 1 0.0 1.9401318 8.7336711 25.6204152
417 1 1 0.0 2.3005278 1.0765359 23.0682771
418 1 1 0.0 7.7104722 18.8224641 16.3767771
419 1 1 0.0 12.3115278 8.8729641 23.7722229
420 1 1 0.0 17.7214722 11.0260359 17.0807229
421 1 1 0.0 17.7214722 18.8224641 17.0807229
422 1 1 0.0 12.3115278 1.0765359 23.7722229
423 1 1 0.0 7.7104722 11.0260359 16.3767771
424 1 1 0.0 2.3005278 8.8729641 23.0682771
425 1 1 0.0 4.875357 1.1004147 23.473782
426 1 1 0.0 5.135643 18.7985853 16.782282
427 1 1 0.0 14.886357 8.8490853 23.366718
428 1 1 0.0 15.146643 11.0499147 16.675218
429 1 1 0.0 15.146643 18.7985853 16.675218
430 1 1 0.0 14.886357 1.1004147 23.366718
431 1 1 0.0 5.135643 11.0499147 16.782282
432 1 1 0.0 4.875357 8.8490853 23.473782
433 1 1 0.0 7.4922324 16.7927661 23.5915524
434 1 1 0.0 2.5187676 3.1062339 16.9000524
435 1 1 0.0 17.5032324 13.0557339 23.2489476
436 1 1 0.0 12.5297676 6.8432661 16.5574476
437 1 1 0.0 12.5297676 3.1062339 16.5574476
438 1 1 0.0 17.5032324 16.7927661 23.2489476
439 1 1 0.0 2.5187676 6.8432661 16.9000524
440 1 1 0.0 7.4922324 13.0557339 23.5915524
441 1 1 0.0 6.176787 16.8106752 25.7917176
442 1 1 0.0 3.834213 3.0883248 19.1002176
443 1 1 0.0 16.187787 13.0378248 21.0487824
444 1 1 0.0 13.845213 6.8611752 14.3572824
445 1 1 0.0 13.845213 3.0883248 14.3572824
446 1 1 0.0 16.187787 16.8106752 21.0487824
447 1 1 0.0 3.834213 6.8611752 19.1002176
448 1 1 0.0 6.176787 13.0378248 25.7917176
449 1 1 0.0 3.964356 16.8066954 13.7684304
450 1 1 0.0 6.046644 3.0923046 20.4599304
451 1 1 0.0 13.975356 13.0418046 19.6890696
452 1 1 0.0 16.057644 6.8571954 26.3805696
453 1 1 0.0 16.057644 3.0923046 26.3805696
454 1 1 0.0 13.975356 16.8066954 19.6890696
455 1 1 0.0 6.046644 6.8571954 20.4599304
456 1 1 0.0 3.964356 13.0418046 13.7684304
457 1 1 0.0 1.822002 16.6873014 25.7261409
458 1 1 0.0 8.188998 3.2116986 19.0346409
459 1 1 0.0 11.833002 13.1611986 21.1143591
460 1 1 0.0 18.199998 6.7378014 14.4228591
461 1 1 0.0 18.199998 3.2116986 14.4228591
462 1 1 0.0 11.833002 16.6873014 21.1143591
463 1 1 0.0 8.188998 6.7378014 19.0346409
464 1 1 0.0 1.822002 13.1611986 25.7261409
465 1 1 0.0 2.3405718 16.7589378 23.1606198
466 1 1 0.0 7.6704282 3.1400622 16.4691198
467 1 1 0.0 12.3515718 13.0895622 23.6798802
468 1 1 0.0 17.6814282 6.8094378 16.9883802
469 1 1 0.0 17.6814282 3.1400622 16.9883802
470 1 1 0.0 12.3515718 16.7589378 23.6798802
471 1 1 0.0 7.6704282 6.8094378 16.4691198
472 1 1 0.0 2.3405718 13.0895622 23.1606198
473 1 1 0.0 4.9013856 16.7270994 23.5246374
474 1 1 0.0 5.1096144 3.1719006 16.8331374
475 1 1 0.0 14.9123856 13.1214006 23.3158626
476 1 1 0.0 15.1206144 6.7775994 16.6243626
477 1 1 0.0 15.1206144 3.1719006 16.6243626
478 1 1 0.0 14.9123856 16.7270994 23.3158626
479 1 1 0.0 5.1096144 6.7775994 16.8331374
480 1 1 0.0 4.9013856 13.1214006 23.5246374
481 1 1 0.0 6.1007034 18.884151 24.2687322
482 1 1 0.0 3.9102966 1.014849 17.5772322
483 1 1 0.0 16.1117034 10.964349 22.5717678
484 1 1 0.0 13.9212966 8.934651 15.8802678
485 1 1 0.0 13.9212966 1.014849 15.8802678
486 1 1 0.0 16.1117034 18.884151 22.5717678
487 1 1 0.0 3.9102966 8.934651 17.5772322
488 1 1 0.0 6.1007034 10.964349 24.2687322
489 1 1 0.0 1.5376896 18.8662419 24.3985473
490 1 1 0.0 8.4733104 1.0327581 17.7070473
491 1 1 0.0 11.5486896 10.9822581 22.4419527
492 1 1 0.0 18.4843104 8.9167419 15.7504527
493 1 1 0.0 18.4843104 1.0327581 15.7504527
494 1 1 0.0 11.5486896 18.8662419 22.4419527
495 1 1 0.0 8.4733104 8.9167419 17.7070473
496 1 1 0.0 1.5376896 10.9822581 24.3985473
497 1 1 0.0 8.3311542 2.5391124 21.5519832
498 1 1 0.0 1.6798458 17.3598876 14.8604832
499 1 1 0.0 18.3421542 7.4103876 25.2885168
500 1 1 0.0 11.6908458 12.4886124 18.5970168
501 1 1 0.0 11.6908458 17.3598876 18.5970168
502 1 1 0.0 18.3421542 2.5391124 25.2885168
503 1 1 0.0 1.6798458 12.4886124 14.8604832
504 1 1 0.0 8.3311542 7.4103876 21.5519832
505 1 1 0.0 8.1809892 19.8651717 21.2307912
506 1 1 0.0 1.8300108 0.0338283 14.5392912
507 1 1 0.0 18.1919892 9.9833283 25.6097088
508 1 1 0.0 11.8410108 9.9156717 18.9182088
509 1 1 0.0 11.8410108 0.0338283 18.9182088
510 1 1 0.0 18.1919892 19.8651717 25.6097088
511 1 1 0.0 1.8300108 9.9156717 14.5392912
512 1 1 0.0 8.1809892 9.9833283 21.2307912
513 1 1 0.0 8.048844 17.2842714 21.0929463
514 1 1 0.0 1.962156 2.6147286 14.4014463
515 1 1 0.0 18.059844 12.5642286 25.7475537
516 1 1 0.0 11.973156 7.3347714 19.0560537
517 1 1 0.0 11.973156 2.6147286 19.0560537
518 1 1 0.0 18.059844 17.2842714 25.7475537
519 1 1 0.0 1.962156 7.3347714 14.4014463
520 1 1 0.0 8.048844 12.5642286 21.0929463
521 1 1 0.0 3.7761492 2.5828902 21.6322812
522 1 1 0.0 6.2348508 17.3161098 14.9407812
523 1 1 0.0 13.7871492 7.3666098 25.2082188
524 1 1 0.0 16.2458508 12.5323902 18.5167188
525 1 1 0.0 16.2458508 17.3161098 18.5167188
526 1 1 0.0 13.7871492 2.5828902 25.2082188
527 1 1 0.0 6.2348508 12.5323902 14.9407812
528 1 1 0.0 3.7761492 7.3666098 21.6322812
529 1 1 0.0 3.884268 0.0139293 21.3030594
530 1 1 0.0 6.126732 19.8850707 14.6115594
531 1 1 0.0 13.895268 9.9355707 25.5374406
532 1 1 0.0 16.137732 9.9634293 18.8459406
533 1 1 0.0 16.137732 19.8850707 18.8459406
534 1 1 0.0 13.895268 0.0139293 25.5374406
535 1 1 0.0 6.126732 9.9634293 14.6115594
536 1 1 0.0 3.884268 9.9355707 21.3030594
537 1 1 0.0 3.9062922 17.3300391 21.158523
538 1 1 0.0 6.1047078 2.5689609 14.467023
539 1 1 0.0 13.9172922 12.5184609 25.681977
540 1 1 0.0 16.1157078 7.3805391 18.990477
541 1 1 0.0 16.1157078 2.5689609 18.990477
542 1 1 0.0 13.9172922 17.3300391 25.681977
543 1 1 0.0 6.1047078 7.3805391 14.467023
544 1 1 0.0 3.9062922 12.5184609 21.158523
545 1 1 0.0 19.9479186 0.9989298 23.982336
546 1 1 0.0 10.0850814 18.9000702 17.290836
547 1 1 0.0 9.9369186 8.9505702 22.858164
548 1 1 0.0 0.0740814 10.9484298 16.166664
549 1 1 0.0 0.0740814 18.9000702 16.166664
550 1 1 0.0 9.9369186 0.9989298 22.858164
551 1 1 0.0 10.0850814 10.9484298 17.290836
552 1 1 0.0 19.9479186 8.9505702 23.982336
553 1 1 0.0 19.941912 16.8584328 23.9850126
554 1 1 0.0 10.091088 3.0405672 17.2935126
555 1 1 0.0 9.930912 12.9900672 22.8554874
556 1 1 0.0 0.080088 6.9089328 16.1639874
557 1 1 0.0 0.080088 3.0405672 16.1639874
558 1 1 0.0 9.930912 16.8584328 22.8554874
559 1 1 0.0 10.091088 6.9089328 17.2935126
560 1 1 0.0 19.941912 12.9900672 23.9850126
561 1 1 0.0 8.3932224 14.92425 22.028418
562 1 1 0.0 1.6177776 4.97475 15.336918
563 1 1 0.0 18.4042224 14.92425 24.812082
564 1 1 0.0 11.6287776 4.97475 18.120582
565 1 1 0.0 3.7721448 14.92425 22.0310946
566 1 1 0.0 6.2388552 4.97475 15.3395946
567 1 1 0.0 13.7831448 14.92425 24.8094054
568 1 1 0.0 16.2498552 4.97475 18.1179054
569 1 1 0.0 5.7723426 14.92425 14.1578757
570 1 1 0.0 4.2386574 4.97475 20.8493757
571 1 1 0.0 15.7833426 14.92425 19.2996243
572 1 1 0.0 14.2496574 4.97475 25.9911243
573 1 1 0.0 2.172387 14.92425 14.2007013
574 1 1 0.0 7.838613 4.97475 20.8922013
575 1 1 0.0 12.183387 14.92425 19.2567987
576 1 1 0.0 17.849613 4.97475 25.9482987
577 1 2 0.0 8.45689236 21.0232935 8.88657966
578 1 2 0.0 1.55410764 38.6737065 2.19507966
579 1 2 0.0 18.46789236 28.7242065 11.18792034
580 1 2 0.0 11.56510764 30.9727935 4.49642034
581 1 2 0.0 11.56510764 38.6737065 4.49642034
582 1 2 0.0 18.46789236 21.0232935 11.18792034
583 1 2 0.0 1.55410764 30.9727935 2.19507966
584 1 2 0.0 8.45689236 28.7242065 8.88657966
585 1 2 0.0 6.14995752 20.45060028 10.8495981
586 1 2 0.0 3.86104248 39.24639972 4.1580981
587 1 2 0.0 16.16095752 29.29689972 9.2249019
588 1 2 0.0 13.87204248 30.40010028 2.5334019
589 1 2 0.0 13.87204248 39.24639972 2.5334019
590 1 2 0.0 16.16095752 20.45060028 9.2249019
591 1 2 0.0 3.86104248 30.40010028 4.1580981
592 1 2 0.0 6.14995752 29.29689972 10.8495981
593 1 2 0.0 5.58834042 21.11821173 0.4175496
594 1 2 0.0 4.42265958 38.57878827 7.1090496
595 1 2 0.0 15.59934042 28.62928827 6.2739504
596 1 2 0.0 14.43365958 31.06771173 12.9654504
597 1 2 0.0 14.43365958 38.57878827 12.9654504
598 1 2 0.0 15.59934042 21.11821173 6.2739504
599 1 2 0.0 4.42265958 31.06771173 7.1090496
600 1 2 0.0 5.58834042 28.62928827 0.4175496
601 1 2 0.0 2.4456873 21.15223902 0.3573261
602 1 2 0.0 7.5653127 38.54476098 7.0488261
603 1 2 0.0 12.4566873 28.59526098 6.3341739
604 1 2 0.0 17.5763127 31.10173902 13.0256739
605 1 2 0.0 17.5763127 38.54476098 13.0256739
606 1 2 0.0 12.4566873 21.15223902 6.3341739
607 1 2 0.0 7.5653127 31.10173902 7.0488261
608 1 2 0.0 2.4456873 28.59526098 0.3573261
609 1 2 0.0 1.42716816 20.44065078 10.90031967
610 1 2 0.0 8.58383184 39.25634922 4.20881967
611 1 2 0.0 11.43816816 29.30684922 9.17418033
612 1 2 0.0 18.59483184 30.39015078 2.48268033
613 1 2 0.0 18.59483184 39.25634922 2.48268033
614 1 2 0.0 11.43816816 20.44065078 9.17418033
615 1 2 0.0 8.58383184 30.39015078 4.20881967
616 1 2 0.0 1.42716816 29.30684922 10.90031967
617 1 2 0.0 3.73230102 21.07224504 8.99096706
618 1 2 0.0 6.27869898 38.62475496 2.29946706
619 1 2 0.0 13.74330102 28.67525496 11.08353294
620 1 2 0.0 16.28969898 31.02174504 4.39203294
621 1 2 0.0 16.28969898 38.62475496 4.39203294
622 1 2 0.0 13.74330102 21.07224504 11.08353294
623 1 2 0.0 6.27869898 31.02174504 2.29946706
624 1 2 0.0 3.73230102 28.67525496 8.99096706
625 1 2 0.0 8.4622983 36.3654225 9.00435006
626 1 2 0.0 1.5487017 23.3315775 2.31285006
627 1 2 0.0 18.4732983 33.2810775 11.07014994
628 1 2 0.0 11.5597017 26.4159225 4.37864994
629 1 2 0.0 11.5597017 23.3315775 4.37864994
630 1 2 0.0 18.4732983 36.3654225 11.07014994
631 1 2 0.0 1.5487017 26.4159225 2.31285006
632 1 2 0.0 8.4622983 33.2810775 9.00435006
633 1 2 0.0 6.16237116 37.20794616 10.90072116
634 1 2 0.0 3.84862884 22.48905384 4.20922116
635 1 2 0.0 16.17337116 32.43855384 9.17377884
636 1 2 0.0 13.85962884 27.25844616 2.48227884
637 1 2 0.0 13.85962884 22.48905384 2.48227884
638 1 2 0.0 16.17337116 37.20794616 9.17377884
639 1 2 0.0 3.84862884 27.25844616 4.20922116
640 1 2 0.0 6.16237116 32.43855384 10.90072116
641 1 2 0.0 5.51686188 36.35965179 0.41607747
642 1 2 0.0 4.49413812 23.33734821 7.10757747
643 1 2 0.0 15.52786188 33.28684821 6.27542253
644 1 2 0.0 14.50513812 26.41015179 12.96692253
645 1 2 0.0 14.50513812 23.33734821 12.96692253
646 1 2 0.0 15.52786188 36.35965179 6.27542253
647 1 2 0.0 4.49413812 26.41015179 7.10757747
648 1 2 0.0 5.51686188 33.28684821 0.41607747
649 1 2 0.0 2.41425276 36.3534831 0.39867957
650 1 2 0.0 7.59674724 23.3435169 7.09017957
651 1 2 0.0 12.42525276 33.2930169 6.29282043
652 1 2 0.0 17.60774724 26.4039831 12.98432043
653 1 2 0.0 17.60774724 23.3435169 12.98432043
654 1 2 0.0 12.42525276 36.3534831 6.29282043
655 1 2 0.0 7.59674724 26.4039831 7.09017957
656 1 2 0.0 2.41425276 33.2930169 0.39867957
657 1 2 0.0 1.41034968 37.20376737 10.947294
658 1 2 0.0 8.60065032 22.49323263 4.255794
659 1 2 0.0 11.42134968 32.44273263 9.127206
660 1 2 0.0 18.61165032 27.25426737 2.435706
661 1 2 0.0 18.61165032 22.49323263 2.435706
662 1 2 0.0 11.42134968 37.20376737 9.127206
663 1 2 0.0 8.60065032 27.25426737 4.255794
664 1 2 0.0 1.41034968 32.44273263 10.947294
665 1 2 0.0 3.74531532 36.35010027 9.10940661
666 1 2 0.0 6.26568468 23.34689973 2.41790661
667 1 2 0.0 13.75631532 33.29639973 10.96509339
668 1 2 0.0 16.27668468 26.40060027 4.27359339
669 1 2 0.0 16.27668468 23.34689973 4.27359339
670 1 2 0.0 13.75631532 36.35010027 10.96509339
671 1 2 0.0 6.26568468 26.40060027 2.41790661
672 1 2 0.0 3.74531532 33.29639973 9.10940661
673 1 1 0.0 7.4601972 20.9616066 10.1148714
674 1 1 0.0 2.5508028 38.7353934 3.4233714
675 1 1 0.0 17.4711972 28.7858934 9.9596286
676 1 1 0.0 12.5618028 30.9111066 3.2681286